ITEM: TIMESTEP
100000
ITEM: NUMBER OF ATOMS
7800
ITEM: BOX BOUNDS pp pp pp
3.6998609852882254e+00 1.3968602993971001e+02
4.4431207305848801e+00 1.6774735533742211e+02
1.5973386134905176e-01 2.9840266138651110e+01
ITEM: ATOMS id type x y z c_peratom fx fy fz
5 5 4.5895 6.18919 15.4314 -0.928578 -0.0372125 -0.0418254 0.00637955
317 5 10.0101 6.18585 15.536 -0.928773 0.016346 -0.034951 -0.0122367
314 1 13.5427 6.10905 17.2465 -1.85656 -0.033291 -0.0072986 -0.0136796
629 5 15.436 6.1763 15.7988 -0.928722 -0.0184589 0.0409167 0.00915756
626 1 18.9102 6.10739 17.6091 -1.8569 -0.0150763 -0.0233673 0.00685927
941 5 20.8381 6.1771 16.2099 -0.928746 -0.00495376 -0.0244249 -0.0110422
938 1 24.2645 6.10492 18.107 -1.85632 0.000399894 -0.0248889 0.001575
1253 5 26.2289 6.17897 16.7564 -0.928601 -0.0140192 -0.0183334 0.0125071
1250 1 29.6051 6.09752 18.736 -1.85581 0.0376864 0.0126632 -0.0293435
1565 5 31.604 6.17801 17.4385 -0.927977 0.0128105 -0.0254535 -0.0072343
1562 1 34.9309 6.09439 19.5138 -1.85433 -0.0127884 0.0141242 0.0445539
1877 5 36.9731 6.18201 18.2837 -0.927542 -0.0272536 0.0228352 -0.0252907
7 1 5.47665 7.68073 17.0638 -1.85711 0.012592 0.0233902 -0.00267469
12 5 7.3054 7.74756 15.5346 -0.928695 -0.0183571 0.00306865 0.0169743
319 1 10.8546 7.67859 17.1898 -1.85699 -0.0192192 0.0683526 0.0735497
324 5 12.7212 7.74434 15.7146 -0.928714 0.0346343 -0.0159437 -0.0190619
631 1 16.2292 7.67953 17.4761 -1.85701 -0.0506731 -0.00859359 0.00787894
636 5 18.1374 7.74149 16.0548 -0.92882 0.0117834 -0.00610812 -0.042062
943 1 21.5883 7.67787 17.9027 -1.8568 0.0304942 -0.0078564 0.0345939
948 5 23.5348 7.73515 16.5303 -0.928735 -0.003176 0.0187477 -0.0238762
1255 1 26.9406 7.6772 18.4732 -1.8562 -0.0541704 0.0180161 -0.0528594
1260 5 28.9205 7.73989 17.1466 -0.928314 0.000982696 0.0101982 0.0153075
1572 5 34.2907 7.74806 17.9164 -0.927981 0.0226897 -0.0089158 -0.0536479
1567 1 32.2698 7.67666 19.1763 -1.85515 0.00476858 0.00632708 0.0477902
1879 1 37.5796 7.67387 20.0538 -1.85393 0.0205966 -0.0227895 -0.0142551
11 5 4.5812 9.31008 15.5651 -0.928727 0.0285326 -0.0216333 0.0189067
8 1 8.1674 9.25319 17.1731 -1.85699 -0.0403175 -0.0476119 -0.0400544
323 5 10.0145 9.31242 15.6699 -0.928739 -0.00847234 -0.0337142 -0.0602847
320 1 13.5401 9.2501 17.3733 -1.85714 -0.0138262 0.00675313 -0.00760411
635 5 15.4296 9.30433 15.9252 -0.928715 0.0258558 0.00217941 -0.0380036
632 1 18.9121 9.249 17.7308 -1.85702 0.0084531 -0.0198666 -0.0106393
947 5 20.838 9.30221 16.326 -0.928822 -0.0209427 -0.0235013 0.0151124
944 1 24.265 9.25115 18.2222 -1.85649 -0.00702534 -0.0324834 0.0465293
1259 5 26.2288 9.30228 16.8747 -0.928501 0.0226412 -0.00273548 0.0112014
1256 1 29.607 9.25516 18.8633 -1.85576 -0.00934168 -0.0338308 -0.0214333
1571 5 31.6069 9.31198 17.5704 -0.928279 0.0248991 -0.00835574 -0.0304059
1568 1 34.9276 9.2567 19.6568 -1.85484 0.0162498 0.0175642 0.0208956
1883 5 36.9737 9.31576 18.4295 -0.927893 -0.00723308 0.00529716 0.0230979
13 1 5.47185 10.819 17.1834 -1.85704 0.0370009 -0.00428486 -0.0157288
18 5 7.29899 10.866 15.6481 -0.928819 -0.0306656 0.0217874 0.0295063
325 1 10.8561 10.8223 17.3072 -1.85723 -0.0347402 -0.0208337 -0.00354868
330 5 12.7188 10.8699 15.8253 -0.928849 0.0268211 -0.0221683 0.0135674
637 1 16.2306 10.8218 17.5834 -1.857 -0.0601525 -0.0331774 0.0109764
642 5 18.1384 10.8601 16.1577 -0.92883 -0.0194009 0.0249275 -0.041514
949 1 21.5881 10.8202 18.0035 -1.85677 0.0500311 0.037362 -0.0202086
954 5 23.5329 10.8632 16.6244 -0.928757 -0.00736158 -0.0026148 0.0181883
1261 1 26.9375 10.8311 18.5679 -1.85621 0.0223252 -0.0493212 -0.00166061
1266 5 28.9227 10.869 17.2453 -0.928583 -0.0135458 -0.00184491 0.0195768
1578 5 34.2956 10.879 18.0253 -0.92813 0.00157069 0.0104234 0.0150643
17 5 4.57915 12.4292 15.6663 -0.92879 0.0214125 0.00419917 0.0335281
14 1 8.16192 12.3885 17.2688 -1.8571 0.0239133 0.00232207 -0.00179933
329 5 10.0093 12.4271 15.7624 -0.928934 -0.0132244 0.0115018 0.00340808
326 1 13.541 12.3887 17.4689 -1.85711 -0.00849157 0.00952274 0.0390574
641 5 15.4265 12.4254 16.0113 -0.928817 0.0126931 0.00938253 0.0427204
638 1 18.912 12.3912 17.8133 -1.85686 -0.00677425 -0.0121279 0.00892378
953 5 20.8358 12.423 16.4063 -0.928733 -0.00220499 0.0140936 0.0290163
950 1 24.2642 12.3968 18.3004 -1.85634 0.0304906 0.0653247 -0.028779
1265 5 26.229 12.4291 16.9482 -0.928732 -0.0208085 -0.00202504 -0.00913771
1577 5 31.6133 12.4407 17.6459 -0.928483 -0.0333091 -0.0389946 -0.00546749
1889 5 36.9743 12.4499 18.5168 -0.927798 0.0128772 -0.0101862 0.0133189
23 5 4.57532 15.5477 15.7378 -0.928864 0.0512492 0.0320199 0.00834981
19 1 5.47284 13.9564 17.2673 -1.85734 -0.00300879 -0.0217062 0.0317274
24 5 7.29686 13.9922 15.7328 -0.928807 -0.0273799 -0.013605 -0.0264892
20 1 8.16233 15.5287 17.3349 -1.85729 0.034896 -0.00473215 -0.0142111
335 5 10.0044 15.5475 15.8229 -0.928861 0.00545582 0.0196611 0.0325408
331 1 10.8506 13.9574 17.385 -1.85708 -0.00517223 0.0231031 0.0624503
336 5 12.7146 13.9851 15.9036 -0.928869 0.0237093 0.0243425 0.00588001
332 1 13.5385 15.5299 17.5257 -1.85698 -0.0607147 -0.0204083 0.00130802
647 5 15.4173 15.5463 16.0663 -0.928852 0.0290681 -0.0239756 -0.0177141
643 1 16.2255 13.9606 17.6558 -1.85698 0.00269158 0.0224514 -0.0761938
648 5 18.1316 13.9828 16.2199 -0.928808 -0.0438402 0.00601115 0.0218218
644 1 18.9034 15.5345 17.857 -1.85692 0.0261522 0.0176079 -0.00856638
959 5 20.8217 15.5477 16.4432 -0.928767 0.0282448 -0.0194583 0.0539645
955 1 21.5908 13.9691 18.0617 -1.8564 -0.0916177 0.00455597 0.0170768
960 5 23.5307 13.9908 16.6825 -0.928653 0.0161528 -0.0213126 -0.0176517
1271 5 26.2247 15.5509 16.9731 -0.928707 -0.0228676 -0.0005321 -0.0130222
1272 5 28.9195 13.9918 17.293 -0.928625 0.0258567 -0.0171196 0.0013338
1583 5 31.6076 15.5647 17.6633 -0.92853 -0.000607824 -0.0420062 -0.0307087
1584 5 34.2956 14.0058 18.072 -0.928383 -0.00788076 -9.46266e-05 0.0297231
1895 5 36.9728 15.5747 18.5289 -0.928097 0.0126663 0.024337 0.00503156
25 1 5.47278 17.0914 17.3223 -1.85705 -0.0427675 0.0272566 -0.0536153
30 5 7.28989 17.1115 15.7784 -0.928876 0.0032451 -0.0113495 0.0419323
337 1 10.8517 17.0976 17.428 -1.85713 -0.0313787 0.00959806 -0.032544
342 5 12.7097 17.1073 15.939 -0.928884 0.014407 -0.00811363 0.0232785
649 1 16.2188 17.1023 17.6818 -1.85704 0.006336 0.0239523 0.00836755
654 5 18.1169 17.1015 16.242 -0.92889 -0.00870019 0.0120188 0.0193488
961 1 21.5824 17.1128 18.0758 -1.85684 0.0238334 0.00329122 -0.0639095
966 5 23.5229 17.1067 16.6866 -0.928761 -0.0341722 0.00739367 0.00560336
1278 5 28.9122 17.1147 17.2819 -0.928543 0.00117681 -0.0248558 0.00292486
1590 5 34.2924 17.1298 18.0542 -0.928391 -0.0100085 0.0139825 -0.00338749
29 5 4.57722 18.6724 15.7755 -0.928891 0.0359685 -0.0113238 0.00510443
26 1 8.16294 18.6627 17.3651 -1.85721 -0.039709 0.0434118 -0.031616
341 5 10.0003 18.6706 15.8501 -0.928851 0.00381815 -0.0201576 -0.00342688
338 1 13.5334 18.6706 17.5397 -1.85699 0.00139731 -0.00358834 -0.0679445
653 5 15.4085 18.6649 16.0718 -0.928869 0.00912301 -0.0102187 0.0117417
650 1 18.8964 18.678 17.8521 -1.85684 0.0243182 -0.0225528 -0.0321449
965 5 20.8128 18.6589 16.4346 -0.928819 -0.00997938 0.0208091 -0.0191726
1277 5 26.2179 18.6701 16.9404 -0.928689 -0.0508099 0.00115542 0.0130912
1589 5 31.6012 18.6815 17.6138 -0.928354 -0.0194688 -0.0147677 -0.0144293
1901 5 36.9653 18.7025 18.4711 -0.928074 0.0274078 0.0434596 -0.0109589
31 1 5.47076 20.2344 17.3402 -1.85705 -0.0116954 -0.032229 -0.0170471
36 5 7.28554 20.2304 15.796 -0.928864 -0.00715771 -0.0263817 -0.0056595
343 1 10.8473 20.2401 17.4304 -1.85706 0.0199439 -0.0280794 -0.000239475
348 5 12.7039 20.2263 15.9348 -0.928866 -0.037116 -0.0233146 0.00376162
655 1 16.2131 20.2456 17.6632 -1.85666 0.0218731 0.015298 -0.0212136
660 5 18.1052 20.2213 16.2131 -0.928839 -0.00991267 -0.0115041 0.0322037
967 1 21.5775 20.256 18.0292 -1.8566 0.0217661 0.017053 -0.0285398
972 5 23.5107 20.2207 16.6325 -0.928796 -0.0257144 0.00765771 0.023546
1284 5 28.899 20.2362 17.2131 -0.928581 0.0110226 0.0101836 -0.0656047
1596 5 34.281 20.2514 17.965 -0.928367 0.0132499 -0.00105323 -0.0331606
35 5 4.57822 21.7915 15.7726 -0.928959 -0.0105758 -0.0170897 -0.0210609
32 1 8.15606 21.8052 17.355 -1.85691 0.0363293 -0.0311523 0.0116145
347 5 9.98852 21.7826 15.8305 -0.928868 -0.00959311 0.0309299 0.0339689
344 1 13.5291 21.811 17.5059 -1.85669 0.0216308 0.051319 0.0171997
659 5 15.4 21.7834 16.0317 -0.92886 -0.0103249 -0.0332257 -0.0123876
656 1 18.8943 21.821 17.7923 -1.85662 0.0181083 0.000787743 0.0205819
971 5 20.801 21.7784 16.3645 -0.928812 0.0033052 -0.0246278 -0.0115101
1283 5 26.2004 21.7834 16.847 -0.928741 -0.00926949 -0.00425854 -0.0121326
1595 5 31.5827 21.8009 17.4958 -0.92834 0.052652 -0.0241006 0.0228484
1907 5 36.9605 21.822 18.3353 -0.928084 -0.0156911 0.0319565 -0.00383598
37 1 5.46827 23.3738 17.3116 -1.85691 0.0371104 0.0313933 0.018275
42 5 7.27798 23.3408 15.7627 -0.9289 -0.00942544 0.0444058 0.00152087
349 1 10.8405 23.3798 17.384 -1.85711 0.0167097 -0.0396578 -0.0261654
354 5 12.6876 23.3376 15.8796 -0.928833 0.0118548 0.0280272 0.0253265
350 1 13.5299 24.9529 17.421 -1.85683 -0.0259962 0.000253609 -0.060969
661 1 16.213 23.3875 17.5901 -1.85685 0.00778134 0.0479518 0.0284853
666 5 18.0986 23.3403 16.1352 -0.928792 -0.0210319 -0.0276153 -0.0091241
662 1 18.8936 24.9656 17.6823 -1.85639 0.0016551 -0.00743012 -0.0547003
973 1 21.5757 23.3992 17.9278 -1.85671 -0.00150881 0.00498712 0.00717763
978 5 23.4963 23.3363 16.5228 -0.928679 0.0164198 -0.00942921 0.0131787
1289 5 26.1844 24.9025 16.6897 -0.928547 0.0126748 -0.0156446 0.0166125
1290 5 28.8931 23.3558 17.0704 -0.928473 -0.0478627 -0.0549401 0.0198697
1601 5 31.5736 24.9084 17.3126 -0.928383 0.0128257 0.0316038 -0.0344057
1602 5 34.2667 23.3673 17.8014 -0.928253 0.0289426 -0.00527081 -0.011592
1913 5 36.95 24.9324 18.1138 -0.92796 -0.0593967 0.047052 0.00593763
3 3 4.5805 6.03899 18.5439 -0.927865 -0.00461696 -0.0187783 -0.00465343
2 1 8.16462 6.11019 17.0413 -1.85699 0.00786218 0.00776655 -0.053413
315 3 9.91513 6.04251 18.6473 -0.927949 0.00841202 -0.0389161 0.00844064
627 3 15.2425 6.0422 18.9049 -0.927751 0.00976805 -0.000848657 0.0363655
939 3 20.5693 6.04047 19.3112 -0.927682 0.00146064 -0.00451189 -1.66678e-05
1251 3 25.877 6.03576 19.8514 -0.927208 0.0492475 0.00902996 -0.0183526
1563 3 31.1802 6.02394 20.5166 -0.926564 -0.0189052 0.0032587 0.0501854
1875 3 36.4467 6.00536 21.3474 -0.9254 -0.00457545 0.01646 -0.00963932
10 3 7.25036 7.6145 18.6482 -0.927765 -0.0184058 0.0225141 -0.0019797
322 3 12.5803 7.62025 18.8259 -0.927784 -0.00127676 -0.0356762 -0.0264363
634 3 17.909 7.61903 19.1574 -0.92792 -0.00336102 0.0102435 0.022178
946 3 23.2238 7.62033 19.6309 -0.927253 0.0203302 0.0234291 -0.0647393
1258 3 28.5339 7.61593 20.2335 -0.926866 -0.000645614 0.0169766 0.0573658
1570 3 33.8142 7.61276 20.9877 -0.926137 -0.0184029 -0.0302285 -3.06633e-05
9 3 4.58367 9.18772 18.6806 -0.927946 -0.0134731 0.0199291 -0.00290319
321 3 9.91521 9.19595 18.7764 -0.927733 0.033284 -0.0218766 0.0412198
633 3 15.2416 9.19791 19.0301 -0.927777 0.0462529 0.00693196 0.0155929
945 3 20.573 9.19945 19.4298 -0.927696 -0.0228293 0.0103602 0.0335692
1257 3 25.8803 9.20768 19.9686 -0.927182 0.00788668 0.00234975 0.00180322
1569 3 31.1745 9.20487 20.6522 -0.926372 0.00365024 0.0112503 -0.0152275
1881 3 36.4374 9.2015 21.4965 -0.925627 -0.00954924 -0.00420026 0.0113817
16 3 7.24887 10.7719 18.7652 -0.927946 -0.0210992 -0.002768 -0.00744428
328 3 12.5813 10.7702 18.939 -0.927977 0.0157698 0.031742 0.00155601
640 3 17.9119 10.7769 19.2631 -0.92783 0.00496824 0.0266586 0.00743039
952 3 23.2296 10.7873 19.7245 -0.927533 -0.0258112 -0.00796064 0.0285037
1264 3 28.5291 10.7947 20.3355 -0.926986 -0.0104216 -0.000251112 0.019587
1573 1 32.2711 10.836 19.2858 -1.85526 -0.0128661 -0.0213688 0.00586902
1576 3 33.8056 10.7995 21.1019 -0.925872 0.0304521 -0.000255506 -0.0172476
1885 1 37.5775 10.8375 20.1743 -1.85398 0.0412884 0.0392969 -0.0369417
15 3 4.58239 12.3462 18.7873 -0.927909 -0.00928753 -0.00791887 -0.0637791
327 3 9.91238 12.3481 18.876 -0.927966 0.0114823 0.0207779 0.0158173
639 3 15.249 12.3571 19.1251 -0.92796 -0.0107603 -0.0212008 -0.00836841
951 3 20.5729 12.3647 19.5135 -0.927397 0.016354 0.0151244 -0.0219902
1263 3 25.882 12.3813 20.045 -0.92728 -0.004307 -0.0040213 -0.0140707
1262 1 29.6078 12.4055 18.9397 -1.85593 0.0136761 0.0426785 -0.0457883
1575 3 31.1731 12.3892 20.7312 -0.926552 -0.00200544 0.00944635 -0.0249242
1574 1 34.927 12.4204 19.7422 -1.85485 -0.00536293 -0.0205398 -0.0428917
1887 3 36.4358 12.3996 21.5808 -0.925368 -0.00831189 0.00168959 0.0374622
21 3 4.58064 15.496 18.8559 -0.928045 0.0369092 0.018418 -0.0093015
22 3 7.2506 13.9279 18.8469 -0.927929 -0.0180393 -0.0208275 0.00672796
333 3 9.91769 15.5106 18.9427 -0.927804 -0.0136564 -0.038101 -0.0544777
334 3 12.5801 13.931 19.0205 -0.927684 0.0140202 -0.00309194 -0.0763187
645 3 15.247 15.5192 19.1776 -0.927758 0.0130393 -0.0276218 0.000496197
646 3 17.9143 13.9396 19.3287 -0.927801 -0.0176215 -0.000421671 0.0260072
957 3 20.5713 15.5356 19.5529 -0.927454 0.0130112 -0.0376377 -0.0221583
958 3 23.229 13.9582 19.7826 -0.92704 0.0200683 -0.00364604 0.00554486
956 1 24.2641 15.5498 18.3314 -1.85655 0.0329808 -0.050419 -0.0249728
1269 3 25.8891 15.5521 20.0686 -0.927201 -0.0382517 0.0187637 0.0263858
1267 1 26.9406 13.9784 18.6166 -1.85643 -0.0289601 -0.00844527 0.0313257
1268 1 29.605 15.5579 18.9566 -1.85573 0.00281418 0.0865421 -0.00757227
1270 3 28.5321 13.9747 20.3854 -0.92678 -0.0169764 -0.0251899 -0.00648283
1581 3 31.171 15.5737 20.7467 -0.926392 0.00734938 0.011803 -0.00858281
1579 1 32.2699 13.992 19.3324 -1.85561 -0.00154414 0.0161202 0.0385331
1582 3 33.8031 13.9937 21.1506 -0.926036 0.0234315 -0.00596659 -0.0193886
1580 1 34.9258 15.5807 19.754 -1.85521 0.00185157 -0.032067 -0.0089728
1893 3 36.4299 15.5965 21.5944 -0.925471 0.0327317 0.036556 0.0184721
1891 1 37.58 14.009 20.2265 -1.85436 -0.0100181 -0.0389094 -0.0180167
28 3 7.25032 17.0799 18.8957 -0.92802 0.00865693 -3.82096e-05 0.0497957
340 3 12.5844 17.0934 19.0535 -0.927774 -0.00351678 -0.0148792 0.0264531
652 3 17.9093 17.1054 19.3561 -0.92749 0.00622011 0.00847642 -0.0555544
964 3 23.2319 17.1316 19.7876 -0.927453 -0.0140571 0.00261873 0.0423092
1273 1 26.9344 17.1296 18.612 -1.85619 0.030885 -0.00415493 0.0299879
1276 3 28.5321 17.1576 20.3749 -0.926577 -0.00391093 -0.0250787 -0.0287082
1585 1 32.2699 17.147 19.3176 -1.85547 -0.0248642 0.0381039 0.0117521
1588 3 33.8099 17.1836 21.1313 -0.925942 -0.0308825 0.00752124 -0.00063358
1897 1 37.5745 17.1752 20.1995 -1.85416 -0.0509021 -0.0347418 0.0504284
27 3 4.58316 18.6527 18.8938 -0.927755 0.00690223 0.0151801 -0.0407411
339 3 9.91913 18.6653 18.9653 -0.927796 0.0126085 0.00533553 0.00554258
651 3 15.2461 18.6804 19.184 -0.92742 0.0232791 0.00698104 0.0199401
963 3 20.5717 18.7052 19.5381 -0.927397 -0.00181213 -0.0110186 0.03574
962 1 24.2591 18.6949 18.3046 -1.85664 0.034448 -0.0131306 -0.0269247
1275 3 25.8846 18.7313 20.0408 -0.926775 -0.0106532 -3.39952e-05 -0.028412
1274 1 29.5973 18.7159 18.9095 -1.85587 0.100724 -0.0304894 0.091483
1587 3 31.1746 18.7639 20.6965 -0.926357 -0.0452001 -0.0247194 -0.00524734
1586 1 34.9232 18.7421 19.6991 -1.85486 -0.00969251 -0.0174915 -0.00290547
1899 3 36.4305 18.7968 21.5382 -0.925043 0.0256644 0.0303522 -0.0267606
34 3 7.25303 20.2357 18.9106 -0.92775 0.0107421 0.0230324 0.0201548
346 3 12.5899 20.2529 19.0506 -0.927583 -0.0419279 0.0305665 0.00139088
658 3 17.9126 20.2718 19.3267 -0.927445 -0.00096053 0.0450669 -0.0212859
970 3 23.2309 20.3032 19.7377 -0.9273 -0.000281917 -0.00227722 -0.00476245
1279 1 26.9282 20.2791 18.5486 -1.85615 0.0100129 -0.00682492 0.0235329
1282 3 28.5324 20.3341 20.3041 -0.926422 -0.00503542 0.0507349 -0.0332032
1591 1 32.2633 20.3028 19.2311 -1.85557 -0.0210795 0.0586522 -0.0139459
1594 3 33.8085 20.3804 21.038 -0.92598 -0.0274072 -0.0379723 0.0382086
1903 1 37.5723 20.3415 20.1041 -1.85405 -0.037749 -0.0518113 0.0246898
33 3 4.58258 21.8176 18.8883 -0.927787 0.0142852 0.00812388 0.0159256
345 3 9.91982 21.8302 18.9482 -0.927768 0.0125508 -0.00229294 -0.000462147
657 3 15.252 21.8542 19.1438 -0.927442 -0.00278093 -0.0378226 0.000277446
969 3 20.5799 21.876 19.4693 -0.927416 -0.0295027 -0.0219118 0.0260474
968 1 24.2526 21.837 18.2195 -1.85649 0.019405 0.0177306 -0.0387037
1281 3 25.887 21.9125 19.9455 -0.926898 -0.0139213 -0.0217749 -0.00919793
1280 1 29.5945 21.8686 18.8036 -1.85549 -0.0308346 -0.0331743 0.0313745
1593 3 31.1714 21.9474 20.5813 -0.926097 0.0111705 0.00630619 -0.00503906
1592 1 34.9189 21.8985 19.5683 -1.85511 0.00486224 0.0401286 0.0028879
1905 3 36.4334 22.0013 21.4006 -0.925048 0.00973712 0.00327111 -0.0134882
40 3 7.25601 23.402 18.8806 -0.927563 -0.0209061 0.0237943 -0.0272537
351 3 9.92417 24.9921 18.8829 -0.927667 -0.0020885 0.031394 -0.0587689
352 3 12.5892 23.4259 18.9929 -0.927401 0.00174422 -0.0334227 0.0232877
663 3 15.259 25.0203 19.0511 -0.927468 0.0161134 -0.0271131 -0.0376631
664 3 17.9189 23.4443 19.2443 -0.927224 -0.000926462 0.00644105 0.00415065
975 3 20.5858 25.0389 19.3481 -0.927063 -0.015241 0.0382386 0.0226448
976 3 23.2379 23.4745 19.626 -0.926972 -0.0141854 0.0155517 0.00254179
974 1 24.2477 24.9833 18.0736 -1.85622 -0.013482 -0.0127475 0.0392229
1287 3 25.8916 25.0842 19.7874 -0.926735 -0.000191889 0.0151611 -0.00707284
1285 1 26.9217 23.4248 18.4143 -1.85604 0.0572198 0.0408947 0.0154191
1288 3 28.5322 23.5205 20.1627 -0.926396 -0.00482425 0.00193013 -0.011154
1286 1 29.5911 25.0153 18.6274 -1.85571 -0.00818559 0.0048408 -0.0061627
1599 3 31.1789 25.134 20.3922 -0.92612 -0.0165922 -0.00315664 0.0278632
1600 3 33.806 23.5676 20.8762 -0.925709 0.0419483 -0.00778008 -0.0216941
1597 1 32.2565 23.4558 19.0767 -1.85542 -0.0115819 -0.0225158 0.000617977
1598 1 34.9171 25.0511 19.3612 -1.85471 -0.006622 -0.013404 -0.0259741
1909 1 37.5694 23.5023 19.9202 -1.85425 0.00301256 -0.0502131 -0.0149156
1911 3 36.4461 25.1981 21.1778 -0.924916 -0.0270501 0.0175883 0.00306504
41 5 4.57945 24.9092 15.7195 -0.92885 -0.00301618 -0.00245059 0.016598
43 1 5.47073 26.5202 17.2336 -1.85674 -0.0240348 -0.0540679 0.0282765
48 5 7.27404 26.462 15.682 -0.928874 -0.0112886 0.0110284 -0.0316831
38 1 8.15268 24.9461 17.2938 -1.85676 0.030524 -0.0315258 0.0694802
353 5 9.97817 24.8985 15.7642 -0.928946 0.0012606 0.0185997 0.00967429
355 1 10.8416 26.5169 17.2866 -1.8571 -0.0209989 -0.0391647 0.0224449
360 5 12.68 26.4556 15.774 -0.928857 0.00406485 -0.0260151 0.0124302
665 5 15.3908 24.8933 15.9357 -0.928817 0.00114712 0.0267007 0.0303678
667 1 16.2126 26.5292 17.4655 -1.85683 -0.0202747 -0.0372671 -0.0275907
672 5 18.0856 26.4523 15.9975 -0.928692 0.00569147 -0.017868 0.0400857
977 5 20.7896 24.8898 16.2423 -0.928688 -0.00727433 0.026591 0.00727139
984 5 23.4776 26.4431 16.3575 -0.928655 0.0131145 0.0597627 -0.0113037
1296 5 28.8748 26.4616 16.8668 -0.928439 1.02129e-05 -0.00744502 0.0072906
1608 5 34.2564 26.4738 17.5589 -0.928031 0.00406114 0.0245335 0.00512226
47 5 4.57351 28.0277 15.6213 -0.928925 0.0121475 -0.0179768 -0.0198884
44 1 8.15402 28.0867 17.1835 -1.85671 -0.00884182 0.00257482 0.0689383
359 5 9.97134 28.0091 15.6478 -0.928893 0.00956446 0.0501513 0.00230304
356 1 13.5244 28.0911 17.2851 -1.8571 0.0521627 -0.0213265 0.000383289
671 5 15.3766 28.0066 15.7931 -0.928865 0.00601483 0.00900387 -0.0182125
668 1 18.889 28.1079 17.5105 -1.85626 -0.0227301 -0.0290761 -0.0170865
983 5 20.7762 28.0048 16.0626 -0.928556 -0.0135119 -0.00674979 -0.00302112
1295 5 26.1676 28.008 16.4705 -0.928621 0.00828251 0.0106596 0.0505853
1607 5 31.5637 28.0235 17.0516 -0.928178 -0.0261931 -0.022887 0.0165547
1919 5 36.9279 28.0478 17.8079 -0.927932 -0.00619761 -0.00752379 -0.0296527
49 1 5.46995 29.6581 17.1073 -1.85687 0.00157461 -0.00206972 -0.0197932
54 5 7.26932 29.58 15.55 -0.92889 -0.00037372 -0.0176383 0.00468905
361 1 10.8419 29.6535 17.1407 -1.85647 -0.0661939 -0.00780428 -0.00401387
366 5 12.6733 29.5609 15.6197 -0.928788 -0.0429513 0.0415775 -0.0168602
673 1 16.2073 29.6659 17.2872 -1.85656 -0.050808 0.0135867 -0.000277793
678 5 18.0653 29.56 15.8092 -0.928659 0.0310531 0.0121212 -0.023139
990 5 23.4585 29.5546 16.131 -0.928626 0.0338928 0.0338009 -0.0474367
1302 5 28.8609 29.5721 16.6031 -0.928457 -0.00337125 -0.0172901 -0.0358316
1614 5 34.2407 29.5873 17.2412 -0.928039 -0.016139 0.00438231 0.00327734
53 5 4.57351 31.1334 15.4701 -0.928836 0.00425231 0.0460561 -0.0151839
50 1 8.15474 31.2254 17.0265 -1.85695 -0.0455496 0.0046203 -0.0254434
365 5 9.96476 31.1269 15.4856 -0.928751 0.00523584 -0.00754202 -0.0482377
362 1 13.5187 31.2255 17.0973 -1.85657 0.0388714 0.019001 0.0303408
677 5 15.3655 31.1177 15.5941 -0.928728 -0.0362397 0.0072717 0.0139641
674 1 18.8785 31.2453 17.283 -1.85628 0.0529629 -0.0154931 0.0353322
989 5 20.7568 31.1113 15.8226 -0.92867 -0.00554191 0.0181429 0.0244137
1301 5 26.156 31.115 16.1987 -0.928579 -0.0116934 -0.00199257 -0.0123134
1613 5 31.5448 31.1281 16.7318 -0.928203 -0.0169903 0.0211448 0.0125296
1925 5 36.9095 31.1515 17.427 -0.927655 0.0142253 0.0331485 -0.02417
55 1 5.4684 32.7958 16.9263 -1.857 -0.0093468 -0.0205785 0.0067701
60 5 7.2656 32.692 15.3707 -0.928855 -0.00362214 -0.0204879 -0.0108494
367 1 10.8362 32.7943 16.9441 -1.85667 -0.0375063 0.00933327 0.0219265
372 5 12.6544 32.6787 15.4148 -0.928721 0.00961505 -0.00964566 -0.00822208
679 1 16.1992 32.8042 17.0554 -1.85669 -0.0204939 -0.0225493 0.0250037
684 5 18.0465 32.6725 15.5644 -0.928707 0.0333193 0.0025981 -0.0208302
996 5 23.4532 32.6676 15.8426 -0.928592 -0.0290917 -0.0333826 -0.024064
1308 5 28.8447 32.6718 16.2746 -0.928401 0.00784967 0.00557158 0.00765017
1620 5 34.2214 32.694 16.8605 -0.927885 0.00795768 -0.00635929 -0.0215082
59 5 4.56941 34.2496 15.2677 -0.92883 0.0172145 0.0214168 0.018742
61 1 5.46981 35.9295 16.7008 -1.85676 -0.0301132 -0.0179783 -0.014724
66 5 7.25977 35.7997 15.1413 -0.928725 0.00516518 0.017576 0.00734032
56 1 8.14988 34.361 16.8184 -1.85673 0.0276209 0.0159516 0.0133301
371 5 9.95076 34.2415 15.2677 -0.928854 0.0204635 -0.0268475 -0.000144688
373 1 10.8334 35.9269 16.6979 -1.8568 -0.0370429 0.0282635 0.0655868
378 5 12.6468 35.7936 15.1649 -0.928692 -0.00808271 -0.018265 -0.0291994
368 1 13.5155 34.3622 16.8625 -1.85623 -0.0547796 0.0343018 0.0304655
683 5 15.341 34.2264 15.3459 -0.928772 0.0265937 0.0104196 -0.0186345
685 1 16.1925 35.9316 16.7732 -1.8565 0.00674376 0.0443443 0.00430301
690 5 18.0329 35.7806 15.2705 -0.928583 0.0247519 0.00740986 0.0133629
680 1 18.881 34.3759 17.0052 -1.85654 -0.029137 0.0231446 -0.0337125
995 5 20.7468 34.2194 15.5325 -0.928601 -0.0231142 0.0293908 -0.00529107
1002 5 23.4362 35.7749 15.5094 -0.928432 -0.0140041 -0.0301035 -0.048226
1307 5 26.1444 34.2216 15.8648 -0.928415 -0.0310452 -0.0242762 0.00362508
1314 5 28.825 35.7764 15.8903 -0.92828 0.0174783 0.00217386 -0.028208
1619 5 31.5263 34.2352 16.3497 -0.928037 -0.00187325 -0.0245909 -0.0279818
1626 5 34.1954 35.7913 16.4183 -0.927758 0.00632654 0.010483 -0.0017972
1931 5 36.8892 34.2598 16.9787 -0.927177 0.0128104 -0.0369336 -0.0164515
65 5 4.57666 37.3624 15.0182 -0.928695 -0.0174306 0.00646759 0.032224
62 1 8.15007 37.4962 16.5597 -1.85649 -0.0335917 -0.0012691 0.0351342
377 5 9.94096 37.3497 15.0044 -0.928674 0.0602617 0.0310749 0.0300034
374 1 13.5116 37.5001 16.5828 -1.85651 0.0331641 -0.0104616 0.0254867
689 5 15.3301 37.3446 15.0532 -0.928599 -0.00301142 -0.0123397 0.0331541
1001 5 20.7284 37.3314 15.2003 -0.928555 -0.00892995 0.0140907 0.0163859
1313 5 26.1218 37.323 15.4831 -0.928348 0.0024664 -0.000905782 -0.0185436
1625 5 31.5057 37.3347 15.9109 -0.927691 0.00577362 -0.0145047 0.0371826
1937 5 36.8651 37.3497 16.4642 -0.927293 -0.0199296 0.0216187 0.0302581
67 1 5.46804 39.0652 16.4276 -1.85653 0.0191088 0.00172353 -0.0243046
72 5 7.25688 38.9147 14.8668 -0.928727 -0.00455729 0.0056943 -0.00278112
379 1 10.8313 39.0588 16.4133 -1.85644 -0.043892 0.0081177 -0.0554329
384 5 12.633 38.9027 14.8661 -0.92875 -0.00470143 0.00203933 0.037661
691 1 16.1902 39.0666 16.4578 -1.85645 0.0232067 -0.00351838 -0.0238497
696 5 18.0198 38.8948 14.9433 -0.928625 -0.0276093 -0.0155955 -0.0312229
1008 5 23.4152 38.8778 15.1327 -0.92833 0.00968348 0.0155621 -0.0072163
1320 5 28.8051 38.8781 15.4573 -0.927974 0.00784124 0.00802167 -0.00060944
1632 5 34.1724 38.8879 15.9173 -0.9272 -0.00988369 0.0389756 0.020425
71 5 4.5708 40.4766 14.7255 -0.928583 0.0248319 -0.023333 -0.00457429
68 1 8.15052 40.6283 16.2602 -1.8569 -0.0177501 -0.00977424 -0.0222542
383 5 9.94194 40.4647 14.7042 -0.928602 -0.00664551 0.00234145 -0.00306135
380 1 13.5067 40.6273 16.2593 -1.85684 0.0299019 -0.00695049 -0.0109212
695 5 15.318 40.4566 14.7246 -0.928668 -0.00760013 -0.0197716 0.0192547
1007 5 20.7042 40.4384 14.8346 -0.928282 0.0572591 -0.00424907 -0.0164703
1319 5 26.0958 40.4333 15.0619 -0.927979 0.0415229 -0.0403309 0.00372308
1631 5 31.4772 40.4339 15.4283 -0.92768 0.032413 0.00601339 -0.013666
1943 5 36.8371 40.4387 15.8983 -0.926903 0.000247802 0.0441721 -0.0162878
73 1 5.46675 42.1953 16.1088 -1.8569 -0.00114434 -0.0159622 -0.00109652
78 5 7.25141 42.0288 14.5492 -0.928702 0.0449602 -0.0158755 0.00458786
385 1 10.8281 42.1906 16.0863 -1.85642 -0.00847213 0.00106477 0.0211312
390 5 12.6226 42.0165 14.536 -0.928549 0.00488728 0.0285793 0.00915099
702 5 18.0023 42.0039 14.5791 -0.928434 -0.00877994 0.0108746 0.0218353
1014 5 23.3964 41.9878 14.721 -0.92818 -0.0257646 -0.00538198 0.0325711
1326 5 28.7774 41.9821 14.9879 -0.927854 0.0052314 0.0116588 0.00653493
1638 5 34.1484 41.9898 15.3707 -0.92714 -0.0149236 -0.00246316 0.029371
77 5 4.57333 43.5939 14.3959 -0.928575 -0.00471879 -0.0330064 -0.000696634
74 1 8.14885 43.7545 15.9267 -1.85694 -0.0459824 0.0209965 -0.0178431
389 5 9.93733 43.5882 14.3705 -0.928474 -0.00407892 -0.0442399 -0.0199264
386 1 13.5019 43.7553 15.9117 -1.85645 0.0342239 -0.00917526 -0.0278649
701 5 15.3053 43.5689 14.368 -0.92861 -0.0231561 -0.00419445 0.00690451
1013 5 20.6874 43.5505 14.4321 -0.928232 0.00477476 0.019236 -0.0192691
1325 5 26.0738 43.537 14.6111 -0.928021 0.0165205 0.0168867 -0.000650255
1637 5 31.4539 43.532 14.9042 -0.927593 -0.0120717 0.0113422 -0.0240182
1949 5 36.812 43.5333 15.2835 -0.926222 -0.0314028 0.018229 0.0125917
39 3 4.58658 24.9841 18.8387 -0.927445 0.0194235 0.0173616 -0.0430845
46 3 7.25935 26.5701 18.7994 -0.927513 0.00163032 0.012498 -0.0582217
358 3 12.5987 26.5887 18.8852 -0.927695 -0.0240325 -0.0257049 0.0492415
670 3 17.9281 26.616 19.1086 -0.927213 -0.00745124 0.00455311 0.00132142
979 1 21.5668 26.543 17.7733 -1.85598 0.00818814 -0.0222919 -0.00164441
982 3 23.2389 26.6499 19.46 -0.926845 0.0152905 -0.0160554 -0.043622
1291 1 26.919 26.573 18.2243 -1.85614 -0.000150226 -0.0640485 -0.0437207
1294 3 28.5434 26.7 19.9558 -0.926744 -0.0287005 -0.0152672 0.0258105
1603 1 32.2535 26.6026 18.8454 -1.85517 0.0243553 0.021265 -0.000116663
1606 3 33.8187 26.7543 20.6313 -0.92556 0.00569123 0.0198022 -0.0233552
1915 1 37.5628 26.6584 19.6446 -1.85359 0.0380775 -0.0413254 0.0127885
45 3 4.58709 28.1516 18.7328 -0.927696 0.00685243 0.00356939 0.0371196
357 3 9.92928 28.1543 18.7624 -0.927643 0.0194697 0.0321911 -0.0227477
669 3 15.2674 28.1817 18.9004 -0.927621 -0.0231696 0.00560338 0.0292334
981 3 20.5861 28.2153 19.1656 -0.926701 0.00822188 -0.00710512 0.0396253
980 1 24.2405 28.124 17.8691 -1.85617 -0.00522842 -0.0509349 -0.0320665
1293 3 25.8939 28.2557 19.5683 -0.926986 0.0133323 0.0133148 0.0192764
1292 1 29.5874 28.1567 18.3807 -1.85585 0.0416986 0.020684 0.0104184
1605 3 31.1872 28.3131 20.1322 -0.926225 0.00247258 -0.0240595 0.000505749
1604 1 34.9115 28.2024 19.0682 -1.85438 -0.00985401 -0.0342467 0.0205611
1917 3 36.4562 28.3921 20.8657 -0.925114 -0.0206235 -0.0208566 0.0279382
52 3 7.26215 29.7366 18.6648 -0.927738 0.0258068 -0.0242458 -0.0180665
364 3 12.6008 29.7448 18.7321 -0.927549 0.0174321 0.0347594 -0.000227067
676 3 17.9326 29.7829 18.9154 -0.927094 -0.0017383 -0.00141157 0.00122116
985 1 21.5599 29.6837 17.5571 -1.85625 0.0231658 0.000122131 0.000422814
988 3 23.2484 29.8163 19.2261 -0.927026 -0.0301652 0.0110622 0.0208396
1297 1 26.9144 29.7053 17.9681 -1.85627 0.00372351 0.0195963 0.0147693
1300 3 28.5493 29.8659 19.688 -0.926594 -0.0146143 -0.0142466 -0.00129673
1609 1 32.252 29.7465 18.5457 -1.85541 0.0227744 0.00202817 -0.00679258
1612 3 33.8316 29.9376 20.3116 -0.925669 0.00808127 -0.0179636 -0.0139301
1921 1 37.5642 29.8042 19.2875 -1.85421 -0.00800526 0.00408681 0.0399445
51 3 4.59186 31.3183 18.5801 -0.927731 -0.00515797 -0.0169407 0.0213387
363 3 9.93467 31.3216 18.5915 -0.927441 0.0443282 -0.0183415 0.0391194
675 3 15.2702 31.3449 18.7026 -0.92737 -0.00192147 -0.00721672 -0.027138
987 3 20.5932 31.3825 18.9271 -0.92707 -0.0123302 -0.00795027 -0.040815
986 1 24.2365 31.2599 17.6028 -1.85616 0.031099 0.0139069 0.0196164
1299 3 25.9069 31.419 19.2895 -0.926951 -0.028322 0.0050237 -0.00914469
1298 1 29.5853 31.2944 18.08 -1.85566 0.00530302 -0.00683955 -0.072797
1611 3 31.2011 31.4784 19.8107 -0.926262 0.0165237 0.0369345 -0.0152645
1610 1 34.912 31.3436 18.7069 -1.85455 -0.025397 -0.0204031 0.00323262
1923 3 36.474 31.565 20.4833 -0.925231 0.0128894 0.0129052 0.0111796
58 3 7.26322 32.8945 18.4805 -0.927707 0.0189771 0.0148392 0.00413653
370 3 12.6059 32.9084 18.5241 -0.92737 0.0180153 -0.00464871 -0.0148755
682 3 17.9402 32.9474 18.6684 -0.927347 -0.0207216 -0.0281186 -0.0164578
991 1 21.5592 32.8174 17.2802 -1.85638 0.0203782 -0.0174865 0.0197167
994 3 23.254 32.9809 18.9376 -0.926936 0.00488976 -0.0350579 -0.0150657
1303 1 26.9121 32.8414 17.6559 -1.85604 -0.00129135 -0.00837558 -0.0113997
1306 3 28.5598 33.0307 19.3571 -0.926542 0.0064291 0.0183943 0.00246103
1615 1 32.25 32.8843 18.1815 -1.85512 -0.0128761 -0.043672 0.0388988
1618 3 33.851 33.1036 19.9252 -0.925967 -0.0107015 0.012059 0.00781748
1927 1 37.565 32.943 18.8598 -1.85326 0.000689599 0.00779155 -0.0218153
57 3 4.59159 34.4747 18.3809 -0.927772 0.00602664 0.0130182 -0.0625806